FoamFile
{
    version 2.0;
    format ascii;
    class volScalarField;
    location "1";
    object p;
}
dimensions [0 2 -2 0 0 0 0];
internalField nonuniform List<scalar>
1
(
    0.25
);
boundaryField
{
    movingWall
    {
        type zeroGradient;
    }
    fixedWalls
    {
        type zeroGradient;
    }
    frontAndBack
    {
        type empty;
    }
}
