FoamFile
{
    version 2.0;
    format ascii;
    class volVectorField;
    location "1";
    object U;
}
dimensions [0 1 -1 0 0 0 0];
internalField nonuniform List<vector>
1
(
    (0.5 0 0)
);
boundaryField
{
    movingWall
    {
        type fixedValue;
        value uniform (1 0 0);
    }
    fixedWalls
    {
        type fixedValue;
        value uniform (0 0 0);
    }
    frontAndBack
    {
        type empty;
    }
}
